# Time      EntID       ServiceAddr                 Type    ProfileID   CustomData(fSrcPersonID)
0           (p 0)       eAddr_HelloHandlerPerson    10101   1           (p 1)
